LAMMPS data file via write_data, version 12 Dec 2018, timestep = 0

256 atoms
1 atom types

0.0000000000000000e+00 6.5715950989999996e+00 xlo xhi
0.0000000000000000e+00 6.5715950989999996e+00 ylo yhi
0.0000000000000000e+00 6.5715950989999996e+00 zlo zhi

Masses

1 1

Pair Coeffs # lj/cut

1 0.44 1

Atoms # full

1 0 1 0.0000000000000000e+00 4.0579634866014222e-02 5.1476279961010230e+00 1.1342521348898631e+00 0 0 0
2 0 1 0.0000000000000000e+00 5.7498439939319521e+00 2.3220752193231666e+00 4.9865133024633019e+00 0 0 0
3 0 1 0.0000000000000000e+00 7.7677695371838384e-01 4.1023945308794163e+00 6.3406968813503006e+00 0 0 0
4 0 1 0.0000000000000000e+00 3.1063594705043829e+00 3.8321543111674576e+00 5.3855375914611310e+00 0 0 0
5 0 1 0.0000000000000000e+00 4.1510011602285557e+00 1.8229289773336841e+00 1.1909705092283869e+00 0 0 0
6 0 1 0.0000000000000000e+00 6.1342721464976506e+00 3.5280530740116349e+00 4.8543663655265201e-01 0 0 0
7 0 1 0.0000000000000000e+00 3.3840326814219797e+00 4.8532899132215981e+00 2.6052027274005893e+00 0 0 0
8 0 1 0.0000000000000000e+00 5.6756898837110654e+00 4.6170135468720019e+00 7.5175328575177847e-01 0 0 0
9 0 1 0.0000000000000000e+00 4.1116933521419936e+00 4.9077034654874598e+00 3.6820568987506639e+00 0 0 0
10 0 1 0.0000000000000000e+00 6.1908451184059548e+00 1.4687025818895441e+00 1.5731019735667255e+00 0 0 0
11 0 1 0.0000000000000000e+00 1.5977864589601853e+00 2.4594412298355670e+00 4.9557713637614620e-01 0 0 0
12 0 1 0.0000000000000000e+00 2.9539406408896185e+00 5.0509735858213780e+00 6.4191631169145404e+00 0 0 0
13 0 1 0.0000000000000000e+00 9.9776569968037343e-01 5.3090169790374446e+00 6.1017075593382151e+00 0 0 0
14 0 1 0.0000000000000000e+00 1.6574299023874983e+00 6.0043398646840105e+00 1.5257655001619994e+00 0 0 0
15 0 1 0.0000000000000000e+00 1.1766849247235611e+00 2.6138769378910567e+00 3.1645831998904278e-01 0 0 0
16 0 1 0.0000000000000000e+00 2.2945489648420327e+00 2.3644111680475999e+00 2.2293772301317183e-01 0 0 0
17 0 1 0.0000000000000000e+00 1.1051042523792323e+00 2.1594199637567364e+00 5.0231941814709433e+00 0 0 0
18 0 1 0.0000000000000000e+00 6.1139662281515292e+00 3.9694285787595600e+00 5.9242732629251700e+00 0 0 0
19 0 1 0.0000000000000000e+00 3.0233850343507878e+00 2.4589668656912349e+00 5.6661291605861228e+00 0 0 0
20 0 1 0.0000000000000000e+00 1.6482223619644665e+00 2.3998952517855554e+00 5.1603741968300509e+00 0 0 0
21 0 1 0.0000000000000000e+00 5.0686046196748364e+00 4.5057453798888775e-01 2.3287059312373621e+00 0 0 0
22 0 1 0.0000000000000000e+00 4.7117717613509411e+00 3.0270500752727076e+00 4.9129537494047764e+00 0 0 0
23 0 1 0.0000000000000000e+00 6.4928424100907547e+00 3.8657675003210188e+00 5.1652291813739408e+00 0 0 0
24 0 1 0.0000000000000000e+00 1.2355935618297331e+00 3.8048083232623381e-01 5.7931758001216849e-01 0 0 0
25 0 1 0.0000000000000000e+00 4.0582256455153312e+00 1.2891655181583894e-02 6.3790054688805222e+00 0 0 0
26 0 1 0.0000000000000000e+00 2.9424703889451669e+00 2.8467070264236769e+00 3.3926723827425942e+00 0 0 0
27 0 1 0.0000000000000000e+00 5.4856578307758204e+00 4.5435179782271042e+00 9.7160968293846062e-01 0 0 0
28 0 1 0.0000000000000000e+00 6.0017152307081663e+00 3.4147079611500759e+00 1.2567034823246723e+00 0 0 0
29 0 1 0.0000000000000000e+00 3.0877924477144020e-01 4.6642337625954395e+00 5.7905070695654040e+00 0 0 0
30 0 1 0.0000000000000000e+00 2.3004970947405514e+00 3.7607038874527698e+00 5.4857423670724592e-01 0 0 0
31 0 1 0.0000000000000000e+00 6.5108675406836278e+00 4.5207628207423571e+00 6.2497886778005345e+00 0 0 0
32 0 1 0.0000000000000000e+00 6.3938404765806833e+00 2.5538310435491312e+00 3.1507573612534077e+00 0 0 0
33 0 1 0.0000000000000000e+00 8.6566284402334093e-01 6.2554654132903647e+00 3.2288073691643029e+00 0 0 0
34 0 1 0.0000000000000000e+00 4.9047211014454772e+00 6.1302252371455053e+00 1.2275985825044520e+00 0 0 0
35 0 1 0.0000000000000000e+00 4.0123603913250401e+00 4.6037861609522999e+00 1.8733114993005509e+00 0 0 0
36 0 1 0.0000000000000000e+00 2.3424943535739662e-01 6.4479575076493800e-01 5.2186485531298188e-01 0 0 0
37 0 1 0.0000000000000000e+00 4.4747611792867303e+00 1.9768273160751944e+00 5.1234758307947743e+00 0 0 0
38 0 1 0.0000000000000000e+00 2.6477059707784507e+00 3.7238355444258673e+00 5.2038673885478248e+00 0 0 0
39 0 1 0.0000000000000000e+00 4.0026732294415626e-02 2.4265895742435020e+00 3.7178991654550980e-01 0 0 0
40 0 1 0.0000000000000000e+00 5.6577833303836558e+00 5.9549463271137633e+00 5.9611571300292816e+00 0 0 0
41 0 1 0.0000000000000000e+00 5.2006001471316159e+00 4.2718561410683922e+00 2.4097063614756955e+00 0 0 0
42 0 1 0.0000000000000000e+00 5.7658172840139059e+00 1.3497625677334377e+00 3.1319414789068090e-01 0 0 0
43 0 1 0.0000000000000000e+00 6.3692996738202038e-03 1.9032980338961754e+00 4.7767088600234349e+00 0 0 0
44 0 1 0.0000000000000000e+00 3.5400810298833205e+00 5.4914380019710878e+00 3.1169287720859411e+00 0 0 0
45 0 1 0.0000000000000000e+00 4.0373383194174064e+00 3.8257372733496529e+00 2.6799045716209480e+00 0 0 0
46 0 1 0.0000000000000000e+00 6.0149217862723496e+00 1.9430539623884280e+00 2.6518989313099515e+00 0 0 0
47 0 1 0.0000000000000000e+00 1.9073771083528990e+00 1.0461671651753279e+00 3.9146552767368519e+00 0 0 0
48 0 1 0.0000000000000000e+00 5.3727000272688459e+00 5.2526980474984351e+00 5.8591194391992625e+00 0 0 0
49 0 1 0.0000000000000000e+00 5.4394512060141178e+00 3.3969972902800118e+00 5.8868327231601416e+00 0 0 0
50 0 1 0.0000000000000000e+00 4.6333627075148094e+00 6.0966971504140073e+00 2.8782234002264397e+00 0 0 0
51 0 1 0.0000000000000000e+00 7.8916386677131956e-01 1.9981990435682384e+00 2.8803693613844432e+00 0 0 0
52 0 1 0.0000000000000000e+00 3.9983575543387864e+00 5.8355284969782986e+00 3.2421912382718769e+00 0 0 0
53 0 1 0.0000000000000000e+00 6.4131758264372669e+00 5.5148962321517763e+00 3.0836974789038414e+00 0 0 0
54 0 1 0.0000000000000000e+00 4.1045772228670510e+00 3.5956305235258390e+00 5.9452735937782917e+00 0 0 0
55 0 1 0.0000000000000000e+00 1.1098103367558152e+00 2.3954388929844841e+00 2.5498979162270903e+00 0 0 0
56 0 1 0.0000000000000000e+00 2.7626374497058452e+00 3.3282427711420270e+00 3.5877189604868953e-01 0 0 0
57 0 1 0.0000000000000000e+00 3.7265511073254514e+00 4.8431673488636093e+00 3.3367361366905040e+00 0 0 0
58 0 1 0.0000000000000000e+00 5.1032695903053202e+00 4.7643672125234362e+00 6.4050546654049958e+00 0 0 0
59 0 1 0.0000000000000000e+00 4.5444474276499286e-01 1.6592866132348811e+00 4.3521035816489464e+00 0 0 0
60 0 1 0.0000000000000000e+00 3.9514449038485173e+00 5.9660235870284142e+00 1.5604066445624145e+00 0 0 0
61 0 1 0.0000000000000000e+00 5.0900301505042611e+00 5.6833358421213473e+00 1.6907345684848742e+00 0 0 0
62 0 1 0.0000000000000000e+00 5.9868444928433151e-01 9.7744255276049419e-01 5.4608318446273723e+00 0 0 0
63 0 1 0.0000000000000000e+00 1.3036600182458953e+00 9.1586659276126126e-01 2.2941026805188032e+00 0 0 0
64 0 1 0.0000000000000000e+00 1.4353056465282310e+00 5.4279878699802691e+00 1.3089664403844548e+00 0 0 0
65 0 1 0.0000000000000000e+00 4.6701671885335836e+00 3.6807522795384590e-01 2.3693680612883461e+00 0 0 0
66 0 1 0.0000000000000000e+00 4.6743012322390509e+00 4.1329967957283156e+00 1.5169493757979893e+00 0 0 0
67 0 1 0.0000000000000000e+00 4.1507700158075478e+00 4.5096797924686420e+00 3.9819952534658327e+00 0 0 0
68 0 1 0.0000000000000000e+00 2.6973678426199504e-01 5.6371098803511925e+00 2.1921677950059101e-01 0 0 0
69 0 1 0.0000000000000000e+00 4.2831576264333098e+00 1.7775130186418577e+00 1.8998425970878580e-01 0 0 0
70 0 1 0.0000000000000000e+00 5.8418299105632627e+00 4.0045277767717797e+00 4.3929353442983592e+00 0 0 0
71 0 1 0.0000000000000000e+00 1.9339435752086789e-01 4.0109879472267282e+00 1.2519034976309000e+00 0 0 0
72 0 1 0.0000000000000000e+00 5.0661727835378034e+00 5.5798702758635219e+00 4.2176637082133004e+00 0 0 0
73 0 1 0.0000000000000000e+00 5.0492061269424218e+00 2.9998621342856886e+00 1.4052914115685455e+00 0 0 0
74 0 1 0.0000000000000000e+00 4.1996842654723299e-01 5.1620865334533939e-01 1.4133060951187699e+00 0 0 0
75 0 1 0.0000000000000000e+00 3.6908528751698024e+00 2.8781335178697018e+00 5.8501061960823844e+00 0 0 0
76 0 1 0.0000000000000000e+00 5.1005614176376408e+00 5.2492748798393682e+00 8.9870138526869181e-01 0 0 0
77 0 1 0.0000000000000000e+00 2.9486447089021857e+00 1.4729809600372645e+00 1.1922574133049808e+00 0 0 0
78 0 1 0.0000000000000000e+00 1.4768885658130988e+00 1.1514366977517083e+00 5.4206076569649699e+00 0 0 0
79 0 1 0.0000000000000000e+00 2.1300331732564262e+00 3.9890386677550480e+00 3.5968896109531495e-01 0 0 0
80 0 1 0.0000000000000000e+00 5.9964731479591746e+00 7.4175948585677554e-01 4.3577599182626359e-01 0 0 0
81 0 1 0.0000000000000000e+00 3.3301543380130680e+00 6.2000959016310793e+00 5.7999289695556122e+00 0 0 0
82 0 1 0.0000000000000000e+00 2.9360878541769408e+00 7.2096676084751232e-01 5.8385821071400406e+00 0 0 0
83 0 1 0.0000000000000000e+00 1.9914564346685983e+00 1.2744582681359977e+00 2.9916849207160223e+00 0 0 0
84 0 1 0.0000000000000000e+00 1.9743600251858402e+00 3.0852884474163784e+00 4.5576046170770130e+00 0 0 0
85 0 1 0.0000000000000000e+00 1.1483252693532717e+00 5.6995913564383720e+00 5.4617646357202760e+00 0 0 0
86 0 1 0.0000000000000000e+00 3.8378897186723271e+00 3.2066050408078564e+00 6.3311090576482343e+00 0 0 0
87 0 1 0.0000000000000000e+00 6.2536839848840176e+00 6.1463156386870921e+00 2.2235782329709513e+00 0 0 0
88 0 1 0.0000000000000000e+00 5.5896286287842836e+00 3.9364237724692916e+00 3.2264822583804484e+00 0 0 0
89 0 1 0.0000000000000000e+00 5.2561547512036508e+00 4.8115827217554994e+00 4.7931113496813200e+00 0 0 0
90 0 1 0.0000000000000000e+00 3.2097305519587689e+00 6.2888141790283152e+00 5.1359297118953346e+00 0 0 0
91 0 1 0.0000000000000000e+00 1.6690424599030844e+00 4.0287410591428774e+00 3.9066760173375732e+00 0 0 0
92 0 1 0.0000000000000000e+00 2.6971892836006250e+00 7.9729657370213280e-01 6.8110735074776163e-01 0 0 0
93 0 1 0.0000000000000000e+00 6.2241766586302845e+00 3.0863157171924467e+00 2.1081424464544245e+00 0 0 0
94 0 1 0.0000000000000000e+00 4.0809188505177092e+00 2.6507238813768774e-01 6.1017454071180097e+00 0 0 0
95 0 1 0.0000000000000000e+00 2.2935375373974649e+00 5.0801354041978879e+00 3.6722121459095640e+00 0 0 0
96 0 1 0.0000000000000000e+00 5.0199615930510468e+00 4.3566134469530668e+00 8.8960988219705328e-01 0 0 0
97 0 1 0.0000000000000000e+00 1.2944398608762191e+00 3.6709640566161950e+00 3.7581101363839187e+00 0 0 0
98 0 1 0.0000000000000000e+00 2.9565657155252532e+00 3.1694372939343238e+00 5.9543217591835775e+00 0 0 0
99 0 1 0.0000000000000000e+00 2.0356390263882540e+00 1.2610311133844077e+00 7.5572837673846438e-01 0 0 0
100 0 1 0.0000000000000000e+00 5.2050965753722593e+00 9.8418439356563803e-01 4.8223847467889813e-01 0 0 0
101 0 1 0.0000000000000000e+00 2.2052868612408307e+00 4.5991851463945438e-01 1.6546391213097640e+00 0 0 0
102 0 1 0.0000000000000000e+00 5.1008479842077312e+00 3.4940041243474820e+00 6.5251083431372319e+00 0 0 0
103 0 1 0.0000000000000000e+00 7.1691099545763037e-01 3.3892841893942705e+00 1.1130530175089717e+00 0 0 0
104 0 1 0.0000000000000000e+00 4.3224135192882889e+00 4.3917943322739736e+00 7.3119056067212163e-01 0 0 0
105 0 1 0.0000000000000000e+00 2.3691808635010417e-01 6.0672423912011304e+00 7.0171773440782947e-01 0 0 0
106 0 1 0.0000000000000000e+00 4.3283545863896071e+00 5.6693826191433248e+00 3.7563395408640909e+00 0 0 0
107 0 1 0.0000000000000000e+00 6.0561423087814905e+00 4.7188903785176182e+00 4.3809370136171806e+00 0 0 0
108 0 1 0.0000000000000000e+00 2.2568986679565297e+00 4.4900091739546916e-01 2.1672450136502581e+00 0 0 0
109 0 1 0.0000000000000000e+00 5.1069057618906797e+00 1.6155205766032754e-01 1.1366572101250287e+00 0 0 0
110 0 1 0.0000000000000000e+00 1.7077777835986022e-01 5.0466577301704936e+00 6.1701232814803708e+00 0 0 0
111 0 1 0.0000000000000000e+00 1.4913296206003039e+00 7.1322584331248806e-01 5.9728797698688119e-01 0 0 0
112 0 1 0.0000000000000000e+00 3.7933130455139437e+00 3.1683005538617977e+00 6.5639166572308456e+00 0 0 0
113 0 1 0.0000000000000000e+00 2.3803311658361257e+00 4.9265365947686428e+00 4.7738959755730095e+00 0 0 0
114 0 1 0.0000000000000000e+00 2.2650977645689929e+00 2.4772060406571292e-01 3.6204948654368971e+00 0 0 0
115 0 1 0.0000000000000000e+00 3.2581817569275899e+00 5.7304238140055359e+00 4.5068661460439943e+00 0 0 0
116 0 1 0.0000000000000000e+00 2.6942054874143224e+00 3.2213948625186539e+00 5.1830287890182749e+00 0 0 0
117 0 1 0.0000000000000000e+00 4.6718197851539225e+00 1.8568862299796003e+00 1.8174211614302593e-01 0 0 0
118 0 1 0.0000000000000000e+00 5.3196200798369713e+00 3.0335992498249509e-01 5.5840574557954081e+00 0 0 0
119 0 1 0.0000000000000000e+00 2.3040507344192922e+00 4.3423700770441558e+00 4.6503104861223559e+00 0 0 0
120 0 1 0.0000000000000000e+00 1.7878278514348804e+00 2.6899064380382294e+00 3.2548180875206700e+00 0 0 0
121 0 1 0.0000000000000000e+00 1.7699928839024861e+00 5.2309816750869240e+00 2.3097787639328065e+00 0 0 0
122 0 1 0.0000000000000000e+00 2.0394356256786375e+00 5.9261194958619772e+00 1.1950465082469883e+00 0 0 0
123 0 1 0.0000000000000000e+00 2.3520415631319960e+00 2.6180310744589201e+00 4.4190806260781503e+00 0 0 0
124 0 1 0.0000000000000000e+00 5.8918686964724811e+00 3.8422298809948585e+00 3.8641671065851826e+00 0 0 0
125 0 1 0.0000000000000000e+00 4.5537920591699059e+00 2.7866155146130103e+00 5.4602786268616175e+00 0 0 0
126 0 1 0.0000000000000000e+00 5.1489192272119499e+00 3.1211881192389543e+00 3.3366398311052907e+00 0 0 0
127 0 1 0.0000000000000000e+00 3.4846616196230213e+00 6.5231871613143699e-01 2.1000368890629337e+00 0 0 0
128 0 1 0.0000000000000000e+00 5.8543128507289053e+00 3.5142599727248935e+00 5.2422068742857268e+00 0 0 0
129 0 1 0.0000000000000000e+00 3.9544382721447152e-01 2.3417589046239637e+00 6.5886210396379075e-01 0 0 0
130 0 1 0.0000000000000000e+00 3.5763950443145803e-01 4.4092304935154401e+00 4.6305681900092672e+00 0 0 0
131 0 1 0.0000000000000000e+00 5.1304071277686498e+00 8.5330242870045381e-01 2.2334131505303350e+00 0 0 0
132 0 1 0.0000000000000000e+00 2.3615475342779531e-02 2.6095881460956449e+00 5.2228070350928402e-01 0 0 0
133 0 1 0.0000000000000000e+00 4.8923267155369254e+00 1.5372293411185247e+00 3.2732020100473718e+00 0 0 0
134 0 1 0.0000000000000000e+00 1.8836091371813266e+00 2.4451767235573927e+00 3.9010387821017520e+00 0 0 0
135 0 1 0.0000000000000000e+00 6.5261031601558024e+00 4.2936104285827215e+00 2.4691070809219479e-02 0 0 0
136 0 1 0.0000000000000000e+00 9.7233585355176022e-01 5.0632745304333557e+00 2.8700960424158621e+00 0 0 0
137 0 1 0.0000000000000000e+00 2.1961582234014196e+00 4.7531847236628124e+00 2.4656271568938761e+00 0 0 0
138 0 1 0.0000000000000000e+00 5.8885267203798373e+00 2.4639848392751815e-01 1.1144069997981385e+00 0 0 0
139 0 1 0.0000000000000000e+00 7.9241345731480417e-01 4.0413065159144512e+00 4.8032648091868522e+00 0 0 0
140 0 1 0.0000000000000000e+00 2.9974518874182579e+00 3.2584290466337035e-01 2.3029812102655232e+00 0 0 0
141 0 1 0.0000000000000000e+00 6.0816629216465605e+00 6.4901493667425534e+00 4.6049536401053590e+00 0 0 0
142 0 1 0.0000000000000000e+00 1.7803483277794072e+00 1.8418592414973241e+00 3.9153555555273147e+00 0 0 0
143 0 1 0.0000000000000000e+00 3.9990954605791487e+00 5.0943284807480564e+00 5.6378261606003024e+00 0 0 0
144 0 1 0.0000000000000000e+00 5.6861438272917404e+00 2.8833756342802044e+00 1.9520253214042349e+00 0 0 0
145 0 1 0.0000000000000000e+00 2.2868426329802976e+00 4.2759935478648998e+00 6.2311514003753228e+00 0 0 0
146 0 1 0.0000000000000000e+00 2.0220884440533649e+00 3.5222222759026445e+00 1.0611393037542212e+00 0 0 0
147 0 1 0.0000000000000000e+00 5.8307746101948457e+00 2.2027572567728897e+00 3.9460219149547879e+00 0 0 0
148 0 1 0.0000000000000000e+00 2.5258553711640347e-01 6.5262834603933291e+00 7.5232142168752802e-01 0 0 0
149 0 1 0.0000000000000000e+00 5.1716382628344149e-01 4.3237074678012579e+00 6.4244016927460308e+00 0 0 0
150 0 1 0.0000000000000000e+00 3.6117734125447098e+00 1.2518151759442544e+00 3.5817501960816531e+00 0 0 0
151 0 1 0.0000000000000000e+00 2.6644387043480346e+00 2.3722993914183275e+00 1.3684059348321447e+00 0 0 0
152 0 1 0.0000000000000000e+00 4.7872953228557282e+00 4.0336941792341658e+00 1.7230291046359552e+00 0 0 0
153 0 1 0.0000000000000000e+00 4.5021554224990599e+00 2.3802160557063750e+00 2.9918806440462204e+00 0 0 0
154 0 1 0.0000000000000000e+00 5.2638820358264020e+00 3.2521533963458031e+00 2.9856940009157511e+00 0 0 0
155 0 1 0.0000000000000000e+00 6.4304925260335510e+00 8.3488689189391219e-01 1.5884556959830625e+00 0 0 0
156 0 1 0.0000000000000000e+00 3.3555902493340768e+00 6.5477760388339519e+00 5.4035682823237230e-01 0 0 0
157 0 1 0.0000000000000000e+00 6.4043803824820422e+00 2.2649618546850969e+00 4.5350782844290967e+00 0 0 0
158 0 1 0.0000000000000000e+00 3.7007681978402873e+00 5.2350841657152989e+00 5.5443877650362081e+00 0 0 0
159 0 1 0.0000000000000000e+00 5.8782582425486778e+00 5.0971592486416526e+00 6.4178135626442423e-01 0 0 0
160 0 1 0.0000000000000000e+00 2.4316972771773151e+00 7.8621683813629739e-01 5.0402495667512497e+00 0 0 0
161 0 1 0.0000000000000000e+00 3.6136422782579842e+00 6.3754608229457030e+00 2.5119620534364380e+00 0 0 0
162 0 1 0.0000000000000000e+00 2.6193161302125039e+00 6.3022273795532024e+00 5.6576246867387570e-01 0 0 0
163 0 1 0.0000000000000000e+00 6.2432978478286243e+00 2.4479827226985904e+00 5.0603006552126173e+00 0 0 0
164 0 1 0.0000000000000000e+00 5.4609359994651063e+00 3.0541903760401410e+00 1.0483318176527838e+00 0 0 0
165 0 1 0.0000000000000000e+00 8.6639887133931826e-01 5.4826863149210450e+00 6.0241670000473435e-01 0 0 0
166 0 1 0.0000000000000000e+00 4.5610245195694352e+00 6.0538656675144669e+00 5.8849511976582995e+00 0 0 0
167 0 1 0.0000000000000000e+00 5.8685390930485939e+00 6.0372910757272438e+00 3.3227811877949689e+00 0 0 0
168 0 1 0.0000000000000000e+00 5.6827196803886937e-01 2.4192879822791808e+00 2.5142406531914196e+00 0 0 0
169 0 1 0.0000000000000000e+00 1.4861716181874740e+00 6.0250106768780043e+00 6.4556579762877897e-01 0 0 0
170 0 1 0.0000000000000000e+00 3.2085229788850367e-01 3.8565894320816225e+00 2.0561235588361741e+00 0 0 0
171 0 1 0.0000000000000000e+00 3.8216228175839073e+00 5.8157926057328622e+00 1.2082202621980075e-01 0 0 0
172 0 1 0.0000000000000000e+00 3.2909085191305240e-02 1.0890064942672510e+00 1.0397984346870706e+00 0 0 0
173 0 1 0.0000000000000000e+00 2.0209235445961626e+00 3.6585423957026855e+00 5.2782983310416220e+00 0 0 0
174 0 1 0.0000000000000000e+00 2.3978084155429311e+00 2.9448929620461852e+00 4.1333225412379848e+00 0 0 0
175 0 1 0.0000000000000000e+00 4.2015905780873952e-01 3.7201482654852072e+00 2.3761261238820324e+00 0 0 0
176 0 1 0.0000000000000000e+00 6.5399425613219346e+00 3.1500226375559776e-01 4.1089922453316516e+00 0 0 0
177 0 1 0.0000000000000000e+00 5.5113669970690786e+00 2.9121993350113957e+00 9.3926184531353887e-02 0 0 0
178 0 1 0.0000000000000000e+00 1.4345596584649032e+00 6.0333566876285794e+00 2.9134714035417058e+00 0 0 0
179 0 1 0.0000000000000000e+00 1.7587966764457412e+00 1.0609857215766387e+00 3.2495189515693430e+00 0 0 0
180 0 1 0.0000000000000000e+00 4.7097463359463605e+00 1.8437007954839921e+00 2.0083779144550284e+00 0 0 0
181 0 1 0.0000000000000000e+00 3.0951797816695117e+00 6.5113819344857458e+00 2.2989254938378400e-02 0 0 0
182 0 1 0.0000000000000000e+00 5.2278920073257868e+00 2.9544934944990180e+00 1.1995940010010078e+00 0 0 0
183 0 1 0.0000000000000000e+00 6.4942061909399884e+00 5.0045183738552890e-01 6.0238993175853635e+00 0 0 0
184 0 1 0.0000000000000000e+00 1.6817354632029451e+00 4.9740925289896493e-01 8.8834754490378653e-01 0 0 0
185 0 1 0.0000000000000000e+00 6.3647173689427250e+00 5.9513933973869078e+00 5.3914231017673195e+00 0 0 0
186 0 1 0.0000000000000000e+00 4.4948463913406336e+00 4.3976362570426764e+00 3.4249366327134811e-01 0 0 0
187 0 1 0.0000000000000000e+00 6.1452869765484914e+00 4.6496389665035052e+00 3.6447878154259747e+00 0 0 0
188 0 1 0.0000000000000000e+00 4.1108960853556686e+00 4.6512307857342492e+00 4.1121132305392978e+00 0 0 0
189 0 1 0.0000000000000000e+00 5.3930045899740833e+00 4.7885382864188948e+00 5.2093974883720504e+00 0 0 0
190 0 1 0.0000000000000000e+00 9.8208309205335909e-01 4.5952345518080238e+00 2.7215087894623622e+00 0 0 0
191 0 1 0.0000000000000000e+00 2.0963354539265002e+00 2.7886484036927945e+00 1.9747479679888735e-01 0 0 0
192 0 1 0.0000000000000000e+00 3.0338480389984074e-01 6.0021974196239185e+00 4.9472619692131001e+00 0 0 0
193 0 1 0.0000000000000000e+00 4.8107240165898943e+00 3.5040438293641460e+00 4.4009579842059141e+00 0 0 0
194 0 1 0.0000000000000000e+00 3.5980013038007717e+00 6.3614070805732190e+00 2.8881375631048369e+00 0 0 0
195 0 1 0.0000000000000000e+00 3.1266218889968669e+00 2.6596767663429901e+00 1.1975485286360910e+00 0 0 0
196 0 1 0.0000000000000000e+00 4.9739276487846578e+00 6.1123338437389485e+00 2.8203241525133036e+00 0 0 0
197 0 1 0.0000000000000000e+00 2.7258220409362904e-01 8.8732019862428269e-01 2.2412986473186081e+00 0 0 0
198 0 1 0.0000000000000000e+00 1.1232580158491809e+00 4.9763480491880969e+00 7.9083773134683033e-01 0 0 0
199 0 1 0.0000000000000000e+00 3.8444605681780213e+00 1.9257560000136580e+00 1.0752296545508382e+00 0 0 0
200 0 1 0.0000000000000000e+00 6.0698768849397906e+00 5.5500834060551112e+00 3.0309703622580724e+00 0 0 0
201 0 1 0.0000000000000000e+00 5.0852661224253488e+00 4.4734571078391268e+00 6.3456788921991123e+00 0 0 0
202 0 1 0.0000000000000000e+00 1.4082795194884936e+00 4.6399325441150134e+00 4.7988242070334319e+00 0 0 0
203 0 1 0.0000000000000000e+00 6.5179758390668741e-01 6.4845577856971239e+00 2.6295823955642974e+00 0 0 0
204 0 1 0.0000000000000000e+00 1.4142814741443548e+00 3.6926286117205204e-01 2.6151342626792049e+00 0 0 0
205 0 1 0.0000000000000000e+00 1.7335307373984155e+00 3.5700295881733779e+00 2.8240345599726959e+00 0 0 0
206 0 1 0.0000000000000000e+00 3.4890444831033194e+00 2.0275591404897040e+00 3.4658858954599814e+00 0 0 0
207 0 1 0.0000000000000000e+00 5.2528745990676029e-01 2.8541206959215515e+00 3.1339087525197145e+00 0 0 0
208 0 1 0.0000000000000000e+00 2.6968511384140698e-01 4.7686851215265413e+00 1.1701009258073089e-01 0 0 0
209 0 1 0.0000000000000000e+00 1.6816914033441577e+00 6.3284903052565404e+00 1.6698831316787852e+00 0 0 0
210 0 1 0.0000000000000000e+00 5.0147213953467160e+00 1.7153469172585813e+00 2.4793905197650257e-01 0 0 0
211 0 1 0.0000000000000000e+00 7.2035380307875396e-01 2.1081959866189859e+00 4.9807683962918343e+00 0 0 0
212 0 1 0.0000000000000000e+00 2.7960654148607476e+00 6.5664697145920883e+00 5.8599956422307198e+00 0 0 0
213 0 1 0.0000000000000000e+00 4.5101025871769207e-01 3.0802691212516855e+00 5.6285260540800026e+00 0 0 0
214 0 1 0.0000000000000000e+00 5.2594081760993405e-01 6.9191341516265736e-01 3.8370385077833005e+00 0 0 0
215 0 1 0.0000000000000000e+00 2.0434938269379179e+00 1.8447619715828385e+00 1.2877931077215896e-01 0 0 0
216 0 1 0.0000000000000000e+00 2.3390885766759419e+00 1.7798259745598211e+00 6.2058588779140997e+00 0 0 0
217 0 1 0.0000000000000000e+00 4.0843448732850023e+00 5.2734762460352949e+00 2.1216690220111373e-01 0 0 0
218 0 1 0.0000000000000000e+00 4.0845816361183394e+00 2.6811540869383625e+00 7.2914533005806226e-01 0 0 0
219 0 1 0.0000000000000000e+00 5.2922977498543613e+00 1.1086168372541463e+00 2.0510780654362755e+00 0 0 0
220 0 1 0.0000000000000000e+00 4.4527515324838713e+00 7.0019044429517507e-02 4.9455700590071361e-01 0 0 0
221 0 1 0.0000000000000000e+00 5.5233930372947304e+00 1.3144093385323359e+00 4.1466249739681409e+00 0 0 0
222 0 1 0.0000000000000000e+00 5.5991258754784146e-01 6.4982722475720633e+00 3.1227146626780744e+00 0 0 0
223 0 1 0.0000000000000000e+00 2.7068750163999198e+00 5.8671253554557365e+00 1.9913886495642783e+00 0 0 0
224 0 1 0.0000000000000000e+00 1.3519401982537552e-01 5.0055820500864208e+00 5.8286535034730873e+00 0 0 0
225 0 1 0.0000000000000000e+00 5.9828871781949893e+00 2.4081941241790834e+00 6.4430336853138925e-02 0 0 0
226 0 1 0.0000000000000000e+00 5.1390752547058964e+00 1.9634196850004386e+00 3.2156537233763687e+00 0 0 0
227 0 1 0.0000000000000000e+00 6.9403461062840044e-01 5.8400106527379460e-02 2.3629206546666377e+00 0 0 0
228 0 1 0.0000000000000000e+00 1.4582597251867953e+00 3.4930770434710325e+00 4.0868502506448712e+00 0 0 0
229 0 1 0.0000000000000000e+00 1.3801878403533778e+00 5.6579284482210941e+00 1.8223467219238099e+00 0 0 0
230 0 1 0.0000000000000000e+00 4.5481940334750375e+00 7.0292904696950675e-01 4.9720995135006412e+00 0 0 0
231 0 1 0.0000000000000000e+00 1.6732445212833162e+00 2.3652405876979525e+00 1.0198035884916186e+00 0 0 0
232 0 1 0.0000000000000000e+00 1.1188935866367915e+00 3.9109323655559005e+00 1.9460877000176677e+00 0 0 0
233 0 1 0.0000000000000000e+00 1.0671664739425457e+00 1.9839023813658982e+00 5.7453863896549446e+00 0 0 0
234 0 1 0.0000000000000000e+00 6.2622613236638447e+00 5.7305563332571534e+00 1.6252210898663810e-01 0 0 0
235 0 1 0.0000000000000000e+00 4.2971196534267326e+00 6.4314722320934683e+00 4.1576164429298039e+00 0 0 0
236 0 1 0.0000000000000000e+00 1.2888686542258307e+00 2.0380252695376453e+00 1.9370491312033780e+00 0 0 0
237 0 1 0.0000000000000000e+00 3.0262768917679961e-01 6.4205604674714341e+00 4.7682512123990977e+00 0 0 0
238 0 1 0.0000000000000000e+00 5.9674895856483854e+00 6.4846601534145956e+00 4.3500766231155108e+00 0 0 0
239 0 1 0.0000000000000000e+00 2.7423283273958301e+00 3.7157692547179400e+00 1.0656382474278363e+00 0 0 0
240 0 1 0.0000000000000000e+00 2.5853797446437561e+00 1.0905736396098573e+00 1.0924298118730515e+00 0 0 0
241 0 1 0.0000000000000000e+00 6.0027366433811844e+00 8.6680545955974242e-01 5.7446194365900505e+00 0 0 0
242 0 1 0.0000000000000000e+00 6.5152713599850802e+00 6.2482077312380966e+00 6.1092519976890953e+00 0 0 0
243 0 1 0.0000000000000000e+00 3.5964983846226488e+00 8.1662975086113776e-01 3.6056560111439802e+00 0 0 0
244 0 1 0.0000000000000000e+00 3.5821714178792909e+00 3.1723183582467995e+00 1.8036088669615262e+00 0 0 0
245 0 1 0.0000000000000000e+00 5.0576304343694058e+00 1.2104881606523793e-02 6.2988921908453888e+00 0 0 0
246 0 1 0.0000000000000000e+00 3.6556017474542157e+00 1.8559889119998421e+00 4.8153041273488331e+00 0 0 0
247 0 1 0.0000000000000000e+00 1.6228241668373420e+00 2.6861111852083166e+00 5.1839547651851108e+00 0 0 0
248 0 1 0.0000000000000000e+00 5.1991592416386101e-01 4.5770508510135492e+00 5.9730191897303460e+00 0 0 0
249 0 1 0.0000000000000000e+00 8.4678947393489024e-01 4.4872990887011150e+00 2.4104276756508858e+00 0 0 0
250 0 1 0.0000000000000000e+00 4.7457544284382545e+00 2.4449621987427945e+00 2.9552022315093512e-01 0 0 0
251 0 1 0.0000000000000000e+00 5.2540907527667029e+00 2.9799364869780516e+00 1.6662871611189078e+00 0 0 0
252 0 1 0.0000000000000000e+00 3.7216000864884426e+00 4.9050132925481732e-01 3.0755866397151381e+00 0 0 0
253 0 1 0.0000000000000000e+00 5.7892000573257247e+00 4.8327679461124359e-02 3.9371115261172336e+00 0 0 0
254 0 1 0.0000000000000000e+00 1.6423676213401854e+00 2.5731960644982839e+00 3.8909503658173999e-02 0 0 0
255 0 1 0.0000000000000000e+00 3.3641131819304504e+00 5.2176120080771859e+00 1.0400186972593590e+00 0 0 0
256 0 1 0.0000000000000000e+00 5.7228765970498658e+00 2.5210976530885127e+00 5.0146522056393126e+00 0 0 0

Velocities

1 0.0000000000000000e+00 0.0000000000000000e+00 0.0000000000000000e+00
2 0.0000000000000000e+00 0.0000000000000000e+00 0.0000000000000000e+00
3 0.0000000000000000e+00 0.0000000000000000e+00 0.0000000000000000e+00
4 0.0000000000000000e+00 0.0000000000000000e+00 0.0000000000000000e+00
5 0.0000000000000000e+00 0.0000000000000000e+00 0.0000000000000000e+00
6 0.0000000000000000e+00 0.0000000000000000e+00 0.0000000000000000e+00
7 0.0000000000000000e+00 0.0000000000000000e+00 0.0000000000000000e+00
8 0.0000000000000000e+00 0.0000000000000000e+00 0.0000000000000000e+00
9 0.0000000000000000e+00 0.0000000000000000e+00 0.0000000000000000e+00
10 0.0000000000000000e+00 0.0000000000000000e+00 0.0000000000000000e+00
11 0.0000000000000000e+00 0.0000000000000000e+00 0.0000000000000000e+00
12 0.0000000000000000e+00 0.0000000000000000e+00 0.0000000000000000e+00
13 0.0000000000000000e+00 0.0000000000000000e+00 0.0000000000000000e+00
14 0.0000000000000000e+00 0.0000000000000000e+00 0.0000000000000000e+00
15 0.0000000000000000e+00 0.0000000000000000e+00 0.0000000000000000e+00
16 0.0000000000000000e+00 0.0000000000000000e+00 0.0000000000000000e+00
17 0.0000000000000000e+00 0.0000000000000000e+00 0.0000000000000000e+00
18 0.0000000000000000e+00 0.0000000000000000e+00 0.0000000000000000e+00
19 0.0000000000000000e+00 0.0000000000000000e+00 0.0000000000000000e+00
20 0.0000000000000000e+00 0.0000000000000000e+00 0.0000000000000000e+00
21 0.0000000000000000e+00 0.0000000000000000e+00 0.0000000000000000e+00
22 0.0000000000000000e+00 0.0000000000000000e+00 0.0000000000000000e+00
23 0.0000000000000000e+00 0.0000000000000000e+00 0.0000000000000000e+00
24 0.0000000000000000e+00 0.0000000000000000e+00 0.0000000000000000e+00
25 0.0000000000000000e+00 0.0000000000000000e+00 0.0000000000000000e+00
26 0.0000000000000000e+00 0.0000000000000000e+00 0.0000000000000000e+00
27 0.0000000000000000e+00 0.0000000000000000e+00 0.0000000000000000e+00
28 0.0000000000000000e+00 0.0000000000000000e+00 0.0000000000000000e+00
29 0.0000000000000000e+00 0.0000000000000000e+00 0.0000000000000000e+00
30 0.0000000000000000e+00 0.0000000000000000e+00 0.0000000000000000e+00
31 0.0000000000000000e+00 0.0000000000000000e+00 0.0000000000000000e+00
32 0.0000000000000000e+00 0.0000000000000000e+00 0.0000000000000000e+00
33 0.0000000000000000e+00 0.0000000000000000e+00 0.0000000000000000e+00
34 0.0000000000000000e+00 0.0000000000000000e+00 0.0000000000000000e+00
35 0.0000000000000000e+00 0.0000000000000000e+00 0.0000000000000000e+00
36 0.0000000000000000e+00 0.0000000000000000e+00 0.0000000000000000e+00