ITEM: TIMESTEP
0
ITEM: NUMBER OF ATOMS
9
ITEM: BOX BOUNDS pp pp pp
0 10
0 10
0 10
ITEM: ATOMS id type xs ys zs
1	1	0.5	0.5	0.5
2	2	0.25	0.25	0.25
3	2	0.75	0.25	0.25
4	2	0.25	0.75	0.25
5	2	0.25	0.25	0.75
6	2	0.75	0.75	0.25
7	2	0.75	0.25	0.75
8	2	0.25	0.75	0.75
9	2	0.75	0.75	0.75
ITEM: TIMESTEP
1
ITEM: NUMBER OF ATOMS
9
ITEM: BOX BOUNDS pp pp pp
0 10
0 10
0 10
ITEM: ATOMS id type xs ys zs
1	1	0.5	0.5	0.5
2	2	0.23	0.23	0.23
3	2	0.73	0.23	0.23
4	2	0.23	0.73	0.23
5	2	0.23	0.23	0.73
6	2	0.73	0.73	0.23
7	2	0.73	0.23	0.73
8	2	0.23	0.73	0.73
9	2	0.73	0.73	0.73
ITEM: TIMESTEP
2
ITEM: NUMBER OF ATOMS
9
ITEM: BOX BOUNDS pp pp pp
0 10
0 10
0 10
ITEM: ATOMS id type xs ys zs
1	1	0.5	0.5	0.5
2	2	0.21	0.21	0.21
3	2	0.71	0.21	0.21
4	2	0.21	0.71	0.21
5	2	0.21	0.21	0.71
6	2	0.71	0.71	0.21
7	2	0.71	0.21	0.71
8	2	0.21	0.71	0.71
9	2	0.71	0.71	0.71
ITEM: TIMESTEP
3
ITEM: NUMBER OF ATOMS
9
ITEM: BOX BOUNDS pp pp pp
0 10
0 10
0 10
ITEM: ATOMS id type xs ys zs
1	1	0.5	0.5	0.5
2	2	0.15	0.15	0.15
3	2	0.65	0.15	0.15
4	2	0.15	0.65	0.15
5	2	0.15	0.15	0.65
6	2	0.65	0.65	0.15
7	2	0.65	0.15	0.65
8	2	0.15	0.65	0.65
9	2	0.65	0.65	0.65
