H He
           1
    10.000000    0.000000    0.000000
     0.000000   10.000000    0.000000
     0.000000    0.000000   10.000000
 H   He 
   1   8
Direct configuration=     1
  0.50000000  0.50000000  0.50000000
  0.25000000  0.25000000  0.25000000
  0.75000000  0.25000000  0.25000000
  0.25000000  0.75000000  0.25000000
  0.25000000  0.25000000  0.75000000
  0.75000000  0.75000000  0.25000000
  0.75000000  0.25000000  0.75000000
  0.25000000  0.75000000  0.75000000
  0.75000000  0.75000000  0.75000000
Direct configuration=     2
  0.50000000  0.50000000  0.50000000
  0.23000000  0.23000000  0.23000000
  0.73000000  0.23000000  0.23000000
  0.23000000  0.73000000  0.23000000
  0.23000000  0.23000000  0.73000000
  0.73000000  0.73000000  0.23000000
  0.73000000  0.23000000  0.73000000
  0.23000000  0.73000000  0.73000000
  0.73000000  0.73000000  0.73000000
Direct configuration=     3
  0.50000000  0.50000000  0.50000000
  0.21000000  0.21000000  0.21000000
  0.71000000  0.21000000  0.21000000
  0.21000000  0.71000000  0.21000000
  0.21000000  0.21000000  0.71000000
  0.71000000  0.71000000  0.21000000
  0.71000000  0.21000000  0.71000000
  0.21000000  0.71000000  0.71000000
  0.71000000  0.71000000  0.71000000
Direct configuration=     4
  0.50000000  0.50000000  0.50000000
  0.15000000  0.15000000  0.15000000
  0.65000000  0.15000000  0.15000000
  0.15000000  0.65000000  0.15000000
  0.15000000  0.15000000  0.65000000
  0.65000000  0.65000000  0.15000000
  0.65000000  0.15000000  0.65000000
  0.15000000  0.65000000  0.65000000
  0.65000000  0.65000000  0.65000000
