H He H
           1
     5.000000    0.000000    0.000000
     0.000000    5.000000    0.000000
     0.000000    0.000000    5.000000
 H   He  H  
   1   1   1
Direct configuration=     1
  0.20000000  0.20000000  0.20000000
  0.40000000  0.20000000  0.20000000
  0.22000000  0.40000000  0.20000000
Direct configuration=     2
  0.40000000  0.20000000  0.20000000
  0.40000000  0.20000000  0.20000000
  0.20000000  0.40000000  0.20000000
Direct configuration=     3
  0.40000000  0.20000000  0.20000000
  0.40000000  0.20000000  0.20000000
  0.20000000  0.40000000  0.20000000
Direct configuration=     4
  0.40000000  0.20000000  0.20000000
  0.40000000  0.40000000  0.20000000
  0.20000000  0.40000000  0.20000000
