9 atoms
2 atom types

0 10 xlo xhi
0 10 ylo yhi
0 10 zlo zhi

Masses

1 1
2 16

Atoms # full

1 0 1 0.0 5.0 5.0 5.0 0 0 0
2 0 2 0.0 2.5 2.5 2.5 0 0 0
3 0 2 0.0 7.5 2.5 2.5 0 0 0
4 0 2 0.0 2.5 7.5 2.5 0 0 0
5 0 2 0.0 2.5 2.5 7.5 0 0 0
6 0 2 0.0 7.5 7.5 2.5 0 0 0
7 0 2 0.0 7.5 2.5 7.5 0 0 0
8 0 2 0.0 2.5 7.5 7.5 0 0 0
9 0 2 0.0 7.5 7.5 7.5 0 0 0